6
	Energy:       0.0246266
C          0.56055       -0.02750        0.22074
C         -0.90118       -0.00386        0.21996
N         -2.06127        0.01492        0.21934
H          0.95257        0.20671        1.21491
H          0.96157        0.70665       -0.48434
H          0.93350       -1.01473       -0.06774
